#     Step Nr.          Time[fs]        Kin.[a.u.]          Temp[K]            Pot.[a.u.]        Cons Qty[a.u.]        UsedTime[s]
         0            0.000000         0.283588314       300.000000000     -1034.945218261     -1034.661629947         0.000000000
         1            2.000000         0.402763879       426.072436273     -1035.073282617     -1034.670518738       105.537545014
         2            4.000000         0.376964086       398.779569178     -1035.078343981     -1034.701379895         3.481586935
         3            6.000000         0.387606604       410.037986113     -1035.071292013     -1034.683685409         3.511344278
         4            8.000000         0.375567185       397.301827890     -1035.044183201     -1034.668616016         3.528555742
         5           10.000000         0.362181946       383.141964400     -1035.043822291     -1034.681640345         3.477045222
         6           12.000000         0.356240947       376.857151025     -1035.075766240     -1034.719525293         3.487848335
         7           14.000000         0.335797156       355.230247159     -1035.116473921     -1034.780676765         3.749212735
         8           16.000000         0.329613060       348.688267466     -1035.162420390     -1034.832807330         3.936874303
         9           18.000000         0.329559686       348.631804935     -1035.213440983     -1034.883881297         3.507474705
        10           20.000000         0.303990808       321.583216872     -1035.242121263     -1034.938130455         3.497503084
        11           22.000000         0.303910614       321.498382416     -1035.246758893     -1034.942848279         3.482489250
        12           24.000000         0.324886763       343.688452619     -1035.269037968     -1034.944151206         3.487941384
        13           26.000000         0.328941337       347.977670816     -1035.273481146     -1034.944539809         3.506189191
        14           28.000000         0.316477245       334.792263609     -1035.272075089     -1034.955597844         3.482159180
        15           30.000000         0.308924603       326.802538260     -1035.276935245     -1034.968010643         3.505268713
        16           32.000000         0.310857329       328.847113967     -1035.291591610     -1034.980734282         3.504595774
        17           34.000000         0.304433638       322.051674276     -1035.285561177     -1034.981127539         4.416504081
        18           36.000000         0.315825441       334.102738349     -1035.295573444     -1034.979748003         3.646082759
        19           38.000000         0.316366929       334.675562972     -1035.298837070     -1034.982470141         3.505919053
        20           40.000000         0.294021038       311.036481571     -1035.297473740     -1035.003452702         3.483143469
        21           42.000000         0.309911640       327.846696445     -1035.309596408     -1034.999684768         3.488340216
        22           44.000000         0.286346214       302.917504266     -1035.306692130     -1035.020345915         3.503705672
        23           46.000000         0.280945897       297.204662306     -1035.312825950     -1035.031880053         3.499242776
        24           48.000000         0.268729636       284.281428100     -1035.328828451     -1035.060098815         3.525047199
        25           50.000000         0.291361975       308.223534842     -1035.341541084     -1035.050179109         3.505033469
        26           52.000000         0.274911097       290.820619466     -1035.350972409     -1035.076061312         3.501583963
        27           54.000000         0.274903243       290.812310810     -1035.350084647     -1035.075181404         4.334527941
        28           56.000000         0.276856825       292.878949657     -1035.346695404     -1035.069838579         3.491404313
        29           58.000000         0.263489840       278.738396824     -1035.347731357     -1035.084241517         3.509607414
        30           60.000000         0.277522055       293.582677574     -1035.360934064     -1035.083412009         3.488127738
        31           62.000000         0.290292358       307.092017584     -1035.356959865     -1035.066667506         3.494304020
        32           64.000000         0.284632324       301.104428535     -1035.350301120     -1035.065668796         3.513113530
        33           66.000000         0.276797640       292.816338916     -1035.359125601     -1035.082327961         3.490083044
        34           68.000000         0.318106301       336.515595741     -1035.370921685     -1035.052815383         3.494016314
        35           70.000000         0.290066882       306.853492167     -1035.358036875     -1035.067969994         3.500227749
        36           72.000000         0.288779088       305.491171488     -1035.372120040     -1035.083340953         3.488217820
        37           74.000000         0.284591342       301.061074648     -1035.363437898     -1035.078846556         4.355434834
        38           76.000000         0.307629443       325.432425764     -1035.375300317     -1035.067670874         3.486740249
        39           78.000000         0.296364583       313.515651519     -1035.366704539     -1035.070339955         3.488600851
        40           80.000000         0.294153395       311.176498606     -1035.363458225     -1035.069304830         3.484765566
        41           82.000000         0.286903059       303.506574327     -1035.353574598     -1035.066671539         3.493670575
        42           84.000000         0.301289634       318.725722487     -1035.355526335     -1035.054236701         3.495547831
        43           86.000000         0.272811103       288.599095178     -1035.340447205     -1035.067636102         3.494360882
        44           88.000000         0.267500910       282.981593311     -1035.339642235     -1035.072141326         3.492505500
        45           90.000000         0.275110757       291.031834134     -1035.342439311     -1035.067328554         3.482522700
        46           92.000000         0.244859390       259.029774002     -1035.341804578     -1035.096945189         4.003047117
        47           94.000000         0.252861171       267.494630818     -1035.350711281     -1035.097850110         3.959095890
        48           96.000000         0.252224771       266.821400690     -1035.357843128     -1035.105618358         3.485446454
        49           98.000000         0.269904291       285.524061846     -1035.367181654     -1035.097277363         3.489527290
        50          100.000000         0.275859455       291.823859879     -1035.368366021     -1035.092506566         3.483584751
        51          102.000000         0.277583307       293.647474476     -1035.363032048     -1035.085448741         3.488437854
        52          104.000000         0.285292855       301.803185211     -1035.358595056     -1035.073302202         3.491508610
        53          106.000000         0.282166962       298.496392422     -1035.354462441     -1035.072295479         3.495758570
        54          108.000000         0.284957578       301.448505664     -1035.353980112     -1035.069022534         3.492586998
        55          110.000000         0.291482996       308.351559553     -1035.366355272     -1035.074872275         3.487540767
        56          112.000000         0.291762782       308.647537281     -1035.356083506     -1035.064320724         4.430793953
        57          114.000000         0.288804616       305.518177413     -1035.374525303     -1035.085720687         3.493652398
        58          116.000000         0.283311124       299.706768276     -1035.371660932     -1035.088349808         3.513370937
        59          118.000000         0.301152487       318.580638473     -1035.369226678     -1035.068074191         3.489790026
        60          120.000000         0.268015814       283.526295731     -1035.352473023     -1035.084457209         3.488035961
        61          122.000000         0.283091734       299.474682315     -1035.344268449     -1035.061176715         3.490392027
        62          124.000000         0.248910680       263.315518540     -1035.351879134     -1035.102968454         3.487565781
        63          126.000000         0.260365791       275.433554814     -1035.365116717     -1035.104750926         3.487416322
        64          128.000000         0.282094637       298.419882147     -1035.372378713     -1035.090284076         3.487778038
        65          130.000000         0.294408193       311.446041773     -1035.368334523     -1035.073926330         3.481353408
        66          132.000000         0.282664345       299.022559975     -1035.365432379     -1035.082768034         4.439909864
        67          134.000000         0.268216777       283.738888758     -1035.365641324     -1035.097424547         3.507660596
        68          136.000000         0.282037002       298.358911576     -1035.375847470     -1035.093810468         3.485984046
        69          138.000000         0.294959287       312.029028686     -1035.393177346     -1035.098218059         3.492971233
        70          140.000000         0.274588695       290.479559598     -1035.388602793     -1035.114014097         3.484268142
        71          142.000000         0.275313764       291.246589619     -1035.376849782     -1035.101536017         3.509324741
        72          144.000000         0.271178343       286.871845237     -1035.370283182     -1035.099104839         3.528241688
        73          146.000000         0.258871296       273.852570995     -1035.363128416     -1035.104257120         3.530227364
        74          148.000000         0.276987190       293.016858657     -1035.362595708     -1035.085608518         3.841977894
        75          150.000000         0.276166557       292.148734343     -1035.362181313     -1035.086014756         3.919148847
        76          152.000000         0.274910629       290.820123804     -1035.355533630     -1035.080623002         4.040799353
        77          154.000000         0.272158480       287.908704317     -1035.355118740     -1035.082960260         3.489385500
        78          156.000000         0.267630892       283.119098115     -1035.350060571     -1035.082429678         3.483170257
        79          158.000000         0.282672283       299.030957118     -1035.365553779     -1035.082881496         3.487034149
        80          160.000000         0.287609326       304.253714092     -1035.368615719     -1035.081006393         3.483503732
        81          162.000000         0.277211548       293.254200818     -1035.371743644     -1035.094532096         3.490521895
        82          164.000000         0.287072359       303.685671962     -1035.383937013     -1035.096864654         3.484814154
        83          166.000000         0.282978482       299.354876133     -1035.368016639     -1035.085038157         3.497417504
        84          168.000000         0.304294934       321.904943166     -1035.372087669     -1035.067792735         3.494023510
        85          170.000000         0.279402403       295.571844482     -1035.367354974     -1035.087952571         4.369199649
        86          172.000000         0.278066358       294.158479778     -1035.375364973     -1035.097298615         3.651329157
        87          174.000000         0.258267041       273.213346125     -1035.360304805     -1035.102037764         3.482665848
        88          176.000000         0.270791874       286.463010567     -1035.358756504     -1035.087964630         3.502437500
        89          178.000000         0.251765356       266.335398754     -1035.351553302     -1035.099787947         3.494237072
        90          180.000000         0.247363306       261.678595967     -1035.364760217     -1035.117396911         3.484403571
        91          182.000000         0.269403223       284.993996602     -1035.357125003     -1035.087721780         3.495848143
        92          184.000000         0.261470756       276.602464969     -1035.364230605     -1035.102759849         3.488646072
        93          186.000000         0.261906761       277.063702495     -1035.370341752     -1035.108434991         3.496674744
        94          188.000000         0.302794480       320.317656196     -1035.373490998     -1035.070696518         3.476777218
        95          190.000000         0.284963921       301.455215920     -1035.372808815     -1035.087844893         4.327135030
        96          192.000000         0.274187872       290.055539814     -1035.365998820     -1035.091810948         3.486129957
        97          194.000000         0.277799806       293.876502592     -1035.374452069     -1035.096652263         3.485984873
        98          196.000000         0.306474537       324.210683578     -1035.383138130     -1035.076663593         3.485264760
        99          198.000000         0.277726761       293.799229965     -1035.374588383     -1035.096861622         3.489455163
       100          200.000000         0.274666731       290.562111270     -1035.377577768     -1035.102911037         3.489179300
       101          202.000000         0.280385261       296.611581083     -1035.382985180     -1035.102599919         3.493191319
       102          204.000000         0.273041029       288.842327681     -1035.390901129     -1035.117860100         3.486367361
       103          206.000000         0.264025642       279.305206416     -1035.380550849     -1035.116525207         3.494909492
       104          208.000000         0.279092683       295.244199815     -1035.369169874     -1035.090077191         3.488197000
       105          210.000000         0.264537841       279.847047265     -1035.363076501     -1035.098538660         4.293184327
       106          212.000000         0.264311154       279.607241668     -1035.356014999     -1035.091703845         3.490323126
       107          214.000000         0.279006349       295.152869622     -1035.355199056     -1035.076192707         3.482861900
       108          216.000000         0.293006861       309.963612397     -1035.359724863     -1035.066718003         3.491921634
       109          218.000000         0.300621295       318.018705851     -1035.368163312     -1035.067542017         3.489881607
       110          220.000000         0.286123028       302.681402009     -1035.368308163     -1035.082185134         3.485614198
       111          222.000000         0.282087182       298.411994743     -1035.369427860     -1035.087340679         3.492389147
       112          224.000000         0.267323173       282.793570721     -1035.358101767     -1035.090778594         3.484310873
       113          226.000000         0.266241781       281.649596607     -1035.364296262     -1035.098054481         3.487302223
       114          228.000000         0.259098003       274.092397744     -1035.355995247     -1035.096897244         3.895576551
       115          230.000000         0.265129196       280.472625102     -1035.361683821     -1035.096554624         4.032634114
       116          232.000000         0.273706728       289.546551324     -1035.362269722     -1035.088562994         3.527707814
       117          234.000000         0.283652976       300.068404401     -1035.349458323     -1035.065805346         3.497558202
       118          236.000000         0.273415676       289.238655676     -1035.362265049     -1035.088849373         3.498064091
       119          238.000000         0.282910545       299.283007353     -1035.368117610     -1035.085207065         3.490911506
       120          240.000000         0.273432084       289.256013961     -1035.386671721     -1035.113239636         3.487397074
       121          242.000000         0.282452253       298.798193172     -1035.393849341     -1035.111397088         3.489738722
       122          244.000000         0.276707780       292.721278615     -1035.382307983     -1035.105600203         3.485931568
       123          246.000000         0.277893776       293.975910728     -1035.374595617     -1035.096701841         3.490029582
       124          248.000000         0.256350316       271.185698009     -1035.366645017     -1035.110294700         4.248147702
       125          250.000000         0.254383342       269.104891788     -1035.371840264     -1035.117456922         3.721473885
       126          252.000000         0.250593699       265.095936297     -1035.376237086     -1035.125643388         3.487064384
       127          254.000000         0.250760099       265.271966403     -1035.366106006     -1035.115345907         3.495620939
       128          256.000000         0.285511038       302.033994789     -1035.380306058     -1035.094795020         3.490087306
       129          258.000000         0.280104983       296.315083080     -1035.384198271     -1035.104093288         3.482586768
       130          260.000000         0.293328850       310.304235279     -1035.388525614     -1035.095196765         3.483348103
       131          262.000000         0.311915242       329.966250707     -1035.395549688     -1035.083634446         3.496525750
       132          264.000000         0.289121936       305.853860776     -1035.388233764     -1035.099111828         3.489123988
       133          266.000000         0.300408302       317.793386477     -1035.406371433     -1035.105963131         3.492965116
       134          268.000000         0.319729090       338.232297841     -1035.404502956     -1035.084773866         4.336022000
       135          270.000000         0.313611692       331.760876652     -1035.401640738     -1035.088029046         3.521609949
       136          272.000000         0.267712916       283.205868378     -1035.388900520     -1035.121187604         3.485894199
       137          274.000000         0.266856890       282.300303088     -1035.399535444     -1035.132678554         3.479235339
       138          276.000000         0.277602617       293.667901566     -1035.405169073     -1035.127566456         3.491468938
       139          278.000000         0.265951522       281.342539936     -1035.413232574     -1035.147281052         3.481443949
       140          280.000000         0.281432438       297.719360529     -1035.401682357     -1035.120249919         3.488593975
       141          282.000000         0.239817771       253.696389752     -1035.384685579     -1035.144867808         3.490531735
       142          284.000000         0.266043481       281.439821331     -1035.391158939     -1035.125115458         3.489181750
       143          286.000000         0.283012601       299.390969628     -1035.401580600     -1035.118567999         3.489000983
       144          288.000000         0.271504539       287.216919000     -1035.399437204     -1035.127932665         4.294568911
       145          290.000000         0.280320115       296.542665637     -1035.385798083     -1035.105477968         3.547972086
       146          292.000000         0.284938660       301.428492627     -1035.377269315     -1035.092330655         3.488932959
       147          294.000000         0.274527635       290.414966123     -1035.373589523     -1035.099061887         3.490905174
       148          296.000000         0.270297835       285.940380329     -1035.361977466     -1035.091679632         3.483763377
       149          298.000000         0.262703949       277.907025481     -1035.364988858     -1035.102284909         3.483696450
       150          300.000000         0.260908287       276.007444997     -1035.377021045     -1035.116112758         3.494100994
       151          302.000000         0.283745560       300.166346557     -1035.385096104     -1035.101350544         3.493185394
       152          304.000000         0.277464943       293.522260363     -1035.384269311     -1035.106804368         3.489529557
       153          306.000000         0.275627643       291.578632407     -1035.377469190     -1035.101841547         3.948441380
       154          308.000000         0.280975281       297.235747297     -1035.382232344     -1035.101257062         4.040507742
       155          310.000000         0.272485295       288.254432096     -1035.371180684     -1035.098695389         3.482485369
       156          312.000000         0.269937359       285.559043548     -1035.374817836     -1035.104880477         3.484673737
       157          314.000000         0.266839262       282.281654532     -1035.386808879     -1035.119969618         3.494096105
       158          316.000000         0.271925511       287.662253150     -1035.386554709     -1035.114629198         3.493840774
       159          318.000000         0.257206832       272.091781186     -1035.395180586     -1035.137973755         3.479854804
       160          320.000000         0.260472914       275.546876842     -1035.406897317     -1035.146424403         3.490414497
       161          322.000000         0.284648187       301.121209117     -1035.411494937     -1035.126846750         3.494813556
       162          324.000000         0.266489581       281.911737768     -1035.413219175     -1035.146729594         3.483889932
       163          326.000000         0.254983300       269.739570436     -1035.411463532     -1035.156480232         4.300504271
       164          328.000000         0.259675583       274.703403279     -1035.418801444     -1035.159125861         3.639403858
       165          330.000000         0.263999835       279.277906301     -1035.412014250     -1035.148014415         3.486594364
       166          332.000000         0.250085053       264.557854081     -1035.398730858     -1035.148645806         3.494847921
       167          334.000000         0.251069701       265.599485936     -1035.404502501     -1035.153432800         3.491017001
       168          336.000000         0.275006712       290.921768167     -1035.403706781     -1035.128700068         3.491607799
       169          338.000000         0.260780345       275.872099019     -1035.403766440     -1035.142986095         3.488552922
       170          340.000000         0.252165172       266.758353457     -1035.402866826     -1035.150701654         3.486938253
       171          342.000000         0.272803683       288.591246561     -1035.412872807     -1035.140069124         3.489158952
       172          344.000000         0.265946712       281.337451936     -1035.419094986     -1035.153148274         3.482488167
       173          346.000000         0.285513593       302.036697522     -1035.421131268     -1035.135617676         4.330539557
       174          348.000000         0.254884011       269.634535777     -1035.418812155     -1035.163928143         3.483111295
       175          350.000000         0.272238732       287.993600615     -1035.432924196     -1035.160685464         3.489438210
       176          352.000000         0.254097957       268.802991322     -1035.422479816     -1035.168381859         3.488400258
       177          354.000000         0.298286225       315.548501201     -1035.437623171     -1035.139336946         3.494380735
       178          356.000000         0.280464330       296.695226258     -1035.425816569     -1035.145352239         3.489389204
       179          358.000000         0.270185566       285.821614154     -1035.423723192     -1035.153537626         3.488694140
       180          360.000000         0.259377089       274.387634673     -1035.412551744     -1035.153174655         3.487707166
       181          362.000000         0.265529230       280.895809011     -1035.422443172     -1035.156913943         3.490596958
       182          364.000000         0.256099954       270.920846673     -1035.411612769     -1035.155512815         3.486701267
       183          366.000000         0.270024313       285.651029201     -1035.411078793     -1035.141054480         4.325228621
       184          368.000000         0.268577756       284.120757785     -1035.399322284     -1035.130744528         3.492718110
       185          370.000000         0.251205958       265.743627497     -1035.397769552     -1035.146563594         3.487078221
       186          372.000000         0.267919976       283.424912035     -1035.403671052     -1035.135751076         3.485388596
       187          374.000000         0.262038741       277.203320199     -1035.393520233     -1035.131481493         3.486329442
       188          376.000000         0.283264850       299.657817172     -1035.388749735     -1035.105484885         3.482972786
       189          378.000000         0.264671560       279.988505169     -1035.391608307     -1035.126936747         3.487485770
       190          380.000000         0.273359675       289.179414237     -1035.396853744     -1035.123494069         3.492815132
       191          382.000000         0.276525042       292.527965710     -1035.389977645     -1035.113452603         3.486823763
       192          384.000000         0.308903453       326.780164003     -1035.391351992     -1035.082448540         3.885586987
       193          386.000000         0.318109361       336.518832602     -1035.385731311     -1035.067621950         4.032174335
       194          388.000000         0.301227644       318.660144708     -1035.379756285     -1035.078528641         3.490424248
       195          390.000000         0.299144382       316.456321401     -1035.382565398     -1035.083421016         3.492216759
       196          392.000000         0.279121308       295.274481852     -1035.380703717     -1035.101582408         3.485486544
       197          394.000000         0.265936672       281.326830433     -1035.381650133     -1035.115713461         3.491217876
       198          396.000000         0.266434246       281.853199648     -1035.381943867     -1035.115509622         3.476723782
       199          398.000000         0.243065244       257.131798489     -1035.362525643     -1035.119460399         3.492308138
       200          400.000000         0.250321803       264.808305131     -1035.373387154     -1035.123065352         3.507547961
       201          402.000000         0.261474776       276.606718287     -1035.368459806     -1035.106985030         3.491712345
       202          404.000000         0.279086945       295.238130100     -1035.375783664     -1035.096696719         4.296483268
       203          406.000000         0.277456277       293.513093067     -1035.360031854     -1035.082575577         3.720787855
       204          408.000000         0.288588185       305.289221309     -1035.368169086     -1035.079580901         3.492256763
       205          410.000000         0.265216611       280.565098337     -1035.368702650     -1035.103486039         3.484871567
       206          412.000000         0.265460104       280.822682579     -1035.375076055     -1035.109615951         3.487160647
       207          414.000000         0.253128135       267.777044368     -1035.373696301     -1035.120568165         3.487432339
       208          416.000000         0.269507601       285.104415049     -1035.378488532     -1035.108980930         3.496526846
       209          418.000000         0.247200355       261.506215136     -1035.375372298     -1035.128171942         3.486025121
       210          420.000000         0.262348368       277.530865669     -1035.381055233     -1035.118706865         3.483909375
       211          422.000000         0.290312109       307.112910895     -1035.377112978     -1035.086800870         3.495923284
       212          424.000000         0.291666821       308.546022556     -1035.375151923     -1035.083485102         4.349536959
       213          426.000000         0.271419707       287.127176791     -1035.369851429     -1035.098431722         3.493455745
       214          428.000000         0.256754063       271.612810711     -1035.375397455     -1035.118643391         3.483893677
       215          430.000000         0.234215244       247.769635578     -1035.374877238     -1035.140661994         3.487577805
       216          432.000000         0.271275299       286.974412592     -1035.381001759     -1035.109726460         3.491716144
       217          434.000000         0.304235381       321.841943978     -1035.379257291     -1035.075021910         3.488112151
       218          436.000000         0.281049521       297.314282976     -1035.366074497     -1035.085024976         3.492006048
       219          438.000000         0.282808267       299.174810793     -1035.369202269     -1035.086394001         3.501220687
       220          440.000000         0.293537988       310.525476602     -1035.365292564     -1035.071754576         3.498441282
       221          442.000000         0.277964057       294.050259108     -1035.369524760     -1035.091560703         3.489002431
       222          444.000000         0.261654568       276.796914959     -1035.362658949     -1035.101004381         4.293807853
       223          446.000000         0.286292306       302.860475676     -1035.380398140     -1035.094105835         3.485827419
       224          448.000000         0.271447348       287.156418396     -1035.373036696     -1035.101589347         3.483961330
       225          450.000000         0.273420073       289.243307385     -1035.370715588     -1035.097295515         3.500118300
       226          452.000000         0.264175299       279.463524462     -1035.369776057     -1035.105600758         3.490725151
       227          454.000000         0.263349552       278.589989935     -1035.380448263     -1035.117098711         3.503604908